                               Psi4 1.4a1.dev178

  ==> Input File <==

--------------------------------------------------------------------------
#Parameters:
mywfn = 'cc2'
mybasis = 'sadlej-lpol-ds'
cfourSpecialBasis = True
# Cartesian displacement size for optical tensor derivatives.
myresponse_disp_size = 0.005
ROAnThreads = 8
# Electric field displacement size and number of points for file17.
f17_pts = 3
f17_size = 0.001
# Hessian finite differences
hessian_points = 3
hessian_disp_size = 0.005
import subprocess
import os
rootDir = os.getcwd()
memory 40 GB
memoryCFOUR = 240

hessian_program = 'cfour'

if hessian_program == 'cfour':
    import cfour
import qcelemental as qcel

# A. Geometry from psi4
molecule mol {
  0 1
    O            1.401878141695     0.086907067752    -0.060599062294
    O           -1.401878141695    -0.086907067752    -0.060599062294
    H            1.768658330921    -1.398161811670     0.961751094107
    H           -1.768658330921     1.398161811670     0.961751094107
  units bohr
}
set {
  basis $mybasis
  g_convergence gau_tight
  scf_type pk
}
print("Optimizing geometry with Psi4...")
optimize(mywfn)

# save geometry for all computations
mol = psi4.get_active_molecule()
ROA_geom = mol.geometry().clone()
ROA_geom_np = ROA_geom.np

# B. Hessian

if hessian_program == 'cfour':
    print("Computing hessian with cfour...")
    kw = {
      'CALC'     : mywfn.upper(),
      'BASIS'    : mybasis.upper().replace('D-AUG','DA').replace('CC-',''),
      'VIB'      : 'EXACT',
      'UNITS'    : 'BOHR',
      'SCF_CONV' : 11,
      'MEM_UNIT' : 'GB',
      'MEMORY_SIZE' : memoryCFOUR
    }
    xyz = ROA_geom_np
    symbols = [mol.symbol(at) for at in range(mol.natom())]
    c4 = cfour.CFOUR(xyz, symbols, kw, "test optimization")
    c4.run(cfourSpecialBasis)
    c4h = c4.parseHessian()
    # Now rotate Hessian to input orientation
    c4coord = c4.parseGeometry()
    rmsd, mill = qcel.molutil.B787(c4coord, ROA_geom_np, None, None, atoms_map=True, verbose=False)
    c4h[:] = mill.align_hessian(c4h)
    c4.writeFile15(c4h)

elif hessian_program == 'psi4':
    print("Computing hessian with Psi4...")
    set {
      basis $mybasis
      hessian_write true
      points $hessian_points
      disp_size = $hessian_disp_size
      d_convergence = 12
      scf_type = pk
    }
    mol = psi4.get_active_molecule()
    mol.set_geometry(ROA_geom)
    mol.fix_orientation(True)
    mol.fix_com(True)
    psi4_hess = hessian(mywfn)
    npHess = psi4_hess.clone().np
    npHess = np.reshape(npHess, (3*mol.natom()*mol.natom(),3))
    f = open('file15.dat', 'w')
    for i in range(npHess.shape[0]):
      f.write('{0:20.10f}{1:20.10f}{2:20.10f}\n'.format(npHess[i][0],npHess[i][1],npHess[i][2]))
    f.close()

else:
    raise("how to compute hessian?")

# C. Dipole-moment derivatives (for IR intensities).
if hessian_program == 'cfour':
    print("Reading dipole moment derivatives from CFOUR's DIPDER")
    kw = {
      'CALC'     : mywfn.upper(),
      'BASIS'    : mybasis.replace('cc-','').upper(),
      'VIB'      : 'EXACT',
      'UNITS'    : 'BOHR',
      'SCF_CONV' : 12,
      'MEM_UNIT' : 'GB',
      'MEMORY_SIZE' : memoryCFOUR
    }
    xyz = ROA_geom_np
    symbols = [mol.symbol(at) for at in range(mol.natom())]
    c4 = cfour.CFOUR(xyz, symbols, kw, "test optimization")
    (c4dipx, c4dipy, c4dipz) = c4.parseDIPDER()

    # Now rotate to input orientation
    c4coord = c4.parseGeometry()
    rmsd, mill = qcel.molutil.B787(c4coord, ROA_geom_np, None, None, atoms_map=True, verbose=False)
    RotMat = mill.rotation

    # For each atom for field direction by nuclear direction 3x3 and transform it.
    for at in range(mol.natom()):
        DIPDERatom = np.zeros( (3,3) )
        DIPDERatom[0,:] = c4dipx[at,:]
        DIPDERatom[1,:] = c4dipy[at,:]
        DIPDERatom[2,:] = c4dipz[at,:]
        DIPDERatom[:] = np.dot( RotMat.T , np.dot(DIPDERatom, RotMat) )
        c4dipx[at][:] = DIPDERatom[0,:]
        c4dipy[at][:] = DIPDERatom[1,:]
        c4dipz[at][:] = DIPDERatom[2,:]
    c4.writeFile17(c4dipx, c4dipy, c4dipz)

elif hessian_program == 'psi4':
    print("Computing dipole moment derivatives with Psi4 by f.d...")
    set {
      basis $mybasis
      d_convergence = 12
      scf_type pk
    }
    mol = psi4.get_active_molecule()
    mol.set_geometry(ROA_geom)
    mol.fix_com(True)
    mol.fix_orientation(True)
    mol.reset_point_group('c1')

    if f17_pts == 3:
       lambdas = [-1.0*f17_size, 1.0*f17_size]
    elif f17_pts == 5:
       lambdas = [-2.0*f17_size, -1.0*f17_size, 1.0*f17_size, +2.0*f17_size]

    N = mol.natom()
    DmuxDx = psi4.core.Matrix("Dipole derivatives mu_x",N,3)
    DmuyDx = psi4.core.Matrix("Dipole derivatives mu_y",N,3)
    DmuzDx = psi4.core.Matrix("Dipole derivatives mu_z",N,3)

    for dipole_xyz, dipole_vector in enumerate([ [1,0,0],[0,1,0],[0,0,1] ]):
       dx = []
       for l in lambdas:
          set perturb_h true
          set perturb_with dipole
          scaled_dipole_vector = []
          for x in dipole_vector:
              scaled_dipole_vector.append(x*l)
          set perturb_dipole $scaled_dipole_vector
          dx.append(gradient(mywfn))

       for A in range(N):
          for xyz in range(3):
             if f17_pts == 3:
                val = (dx[1].get(A,xyz) - dx[0].get(A,xyz)) / (2.0*f17_size)
             elif f17_pts == 5:
                val = (dx[0].get(A,xyz) - 8.0*dx[1].get(A,xyz) \
                   + 8.0*dx[2].get(A,xyz) - dx[3].get(A,xyz)) / (12.0*f17_size)

             if dipole_xyz == 0:
                DmuxDx.set(A,xyz, val)
             elif dipole_xyz == 1:
                DmuyDx.set(A,xyz, val)
             elif dipole_xyz == 2:
                DmuzDx.set(A,xyz, val)

    core.set_global_option('PERTURB_H', 0)
    core.set_global_option('PERTURB_DIPOLE', '')

    f = open('file17.dat', 'w')
    for i in range(N):
        f.write('{0:20.10f}{1:20.10f}{2:20.10f}\n'.format(DmuxDx.get(i,0), DmuxDx.get(i,1), DmuxDx.get(i,2)))
    for i in range(N):
        f.write('{0:20.10f}{1:20.10f}{2:20.10f}\n'.format(DmuyDx.get(i,0), DmuyDx.get(i,1), DmuyDx.get(i,2)))
    for i in range(N):
        f.write('{0:20.10f}{1:20.10f}{2:20.10f}\n'.format(DmuzDx.get(i,0), DmuzDx.get(i,1), DmuzDx.get(i,2)))
    f.close()
else:
    raise("how to compute file17?")

# D. Make displacements for 3 ROA tensors.
print("Making displacements for ROA tensor derivatives.")
mol = psi4.get_active_molecule()
mol.set_geometry(ROA_geom)
mol.fix_com(True)
mol.fix_orientation(True)
mol.reset_point_group('c1')

set {
  basis $mybasis
  freeze_core true
  omega [532, nm]
}
set response_disp_size $myresponse_disp_size

properties(mywfn, properties=['roa'])

# E. Run displacements for ROA tensors
print("Computing ROA tensors with Psi4...")
dirlist = []
for A in range(1,mol.natom()+1):
  for cart in ('x','y','z'):
    for sign in ('m','p'):
      dirlist.append( "%s" % A+'_'+cart+'_'+sign )

def runRoaDisp(folder):
  print("Running displacement %s" % folder)
  rc = subprocess.call("/home/rking/psi4/objdir/stage/bin/psi4", cwd=rootDir+'/'+folder)
  if (rc != 0): raise("Tensor calculation failed.")

import threading
nwhole = len(dirlist) // ROAnThreads
ROAthreads = []

for i in range(nwhole):
  ROAthreads.clear()
  for f in dirlist[i*ROAnThreads:(i+1)*ROAnThreads]:
    t = threading.Thread(target=runRoaDisp, args = (f,))
    ROAthreads.append(t)
    t.start()
  for th in ROAthreads:
    th.join()

for f in dirlist[nwhole*ROAnThreads:]:
  ROAthreads.clear()
  t = threading.Thread(target=runRoaDisp, args = (f,))
  ROAthreads.append(t)
  t.start()
for th in ROAthreads:
   th.join()
core.clean()

# F. Calculate spectra from finite differences of tensors.
mol.set_geometry(ROA_geom)
mol.fix_orientation(True)
mol.fix_com(True)
mol.reset_point_group('c1')

set {
  basis $mybasis
  freeze_core true
  omega [532, nm]
}
set response_disp_size $myresponse_disp_size

energy(mywfn)
properties(mywfn, properties=['roa'])

--------------------------------------------------------------------------

    Molecular point group: c2
  Charge       = 0
  Multiplicity = 1
  Basis Set: SADLEJ-LPOL-DS
    Blend: SADLEJ-LPOL-DS
  @RHF Final Energy:  -150.84103012037659
    Total Energy =                       -150.8410301203766153
      * MP2 total energy                      = -151.350531765841993
    Molecular point group: c2
  Basis Set: SADLEJ-LPOL-DS
    Blend: SADLEJ-LPOL-DS
  @RHF Final Energy:  -150.84183287743687
    Total Energy =                       -150.8418328774368717
      * MP2 total energy                      = -151.350609945592964
  Basis Set: SADLEJ-LPOL-DS
    Blend: SADLEJ-LPOL-DS
  @RHF Final Energy:  -150.84209463096894
    Total Energy =                       -150.8420946309689157
      * MP2 total energy                      = -151.350695858093076
  Basis Set: SADLEJ-LPOL-DS
    Blend: SADLEJ-LPOL-DS
  @RHF Final Energy:  -150.84205726765776
    Total Energy =                       -150.8420572676577649
      * MP2 total energy                      = -151.350698372329759
  Basis Set: SADLEJ-LPOL-DS
    Blend: SADLEJ-LPOL-DS
  @RHF Final Energy:  -150.84210761778400
    Total Energy =                       -150.8421076177839950
      * MP2 total energy                      = -151.350710540845569
  Basis Set: SADLEJ-LPOL-DS
    Blend: SADLEJ-LPOL-DS
  @RHF Final Energy:  -150.84217221578905
    Total Energy =                       -150.8421722157890486
      * MP2 total energy                      = -151.350719764816546
  Basis Set: SADLEJ-LPOL-DS
    Blend: SADLEJ-LPOL-DS
  @RHF Final Energy:  -150.84217960447023
    Total Energy =                       -150.8421796044702319
      * MP2 total energy                      = -151.350720718578515

  -Total gradient:
     Atom            X                  Y                   Z
    ------   -----------------  -----------------  -----------------
       1        0.000000005539     0.000000065124    -0.000000147584
       2       -0.000000005539    -0.000000065124    -0.000000147584
       3        0.000000049097    -0.000000091560     0.000000147584
       4       -0.000000049097     0.000000091560     0.000000147584

  **** Optimization is complete! (in 7 steps) ****
    Final optimized geometry and variables:
    Molecular point group: c2
    Molecular point group: c1

    Geometry (in Bohr), charge = 0, multiplicity = 1:

       Center              X                  Y                   Z               Mass
    ------------   -----------------  -----------------  -----------------  -----------------
         O            1.395926204465     0.091004467614    -0.058496053749    15.994914619570
         O           -1.395926204465    -0.091004467614    -0.058496053749    15.994914619570
         H            1.773272429727    -1.405372197193     0.928374822386     1.007825032230
         H           -1.773272429727     1.405372197193     0.928374822386     1.007825032230

  Charge       = 0
  Multiplicity = 1
  Basis Set: SADLEJ-LPOL-DS
    Blend: SADLEJ-LPOL-DS

    Orbital Energies [Eh]
    ---------------------

    Doubly Occupied:

       1A    -20.634505     2A    -20.634239     3A     -1.465150
       4A     -1.219769     5A     -0.710164     6A     -0.706209
       7A     -0.603355     8A     -0.524312     9A     -0.491765

  @RHF Final Energy:  -150.84217960446861

   => Energetics <=

    Nuclear Repulsion Energy =             36.3126264172317477
    One-Electron Energy =                -280.3306754254032853
    Two-Electron Energy =                  93.1758694037029613
    Total Energy =                       -150.8421796044685834

  Dipole Moment: [D]
     X:    -0.0000      Y:    -0.0000      Z:     1.8472     Total:     1.8472

      * MP2 total energy                      = -151.307562983185875
*** Psi4 exiting successfully. Buy a developer a beer!
